4
Coordinates from ORCA-job PES_H3 Relaxed Surface Scan Step 1 E -114.384988944583
  C      -0.014699      0.000000     -0.000000
  O       1.335301     -0.000000      0.000000
  H      -0.572449      0.956896      0.000000
  H      -0.572449     -0.956896      0.000000
>
4
Coordinates from ORCA-job PES_H3 Relaxed Surface Scan Step 2 E -114.391490866136
  C       0.008847      0.000000      0.000000
  O       1.336120     -0.000000     -0.000000
  H      -0.555234      0.955196     -0.000000
  H      -0.555234     -0.955196      0.000001
>
4
Coordinates from ORCA-job PES_H3 Relaxed Surface Scan Step 3 E -114.397333048698
  C       0.008937     -0.000000      0.000000
  O       1.313482      0.000000     -0.000000
  H      -0.561655      0.953566     -0.000000
  H      -0.561654     -0.953566      0.000000
>
4
Coordinates from ORCA-job PES_H3 Relaxed Surface Scan Step 4 E -114.402385803863
  C       0.009024      0.000000     -0.000000
  O       1.290842     -0.000000      0.000000
  H      -0.568252      0.952010      0.000000
  H      -0.568252     -0.952010      0.000000
>
4
Coordinates from ORCA-job PES_H3 Relaxed Surface Scan Step 5 E -114.406509160175
  C       0.009113      0.000000      0.000000
  O       1.268204      0.000000     -0.000000
  H      -0.575026      0.950544     -0.000000
  H      -0.575026     -0.950544      0.000001
>
4
Coordinates from ORCA-job PES_H3 Relaxed Surface Scan Step 6 E -114.409523003891
  C       0.009204      0.000000     -0.000000
  O       1.245568     -0.000000      0.000000
  H      -0.581979      0.949187      0.000000
  H      -0.581979     -0.949187      0.000000
>
4
Coordinates from ORCA-job PES_H3 Relaxed Surface Scan Step 7 E -114.411245306132
  C       0.009296      0.000000      0.000000
  O       1.222932     -0.000000     -0.000000
  H      -0.589116      0.947957     -0.000000
  H      -0.589116     -0.947957      0.000000
>
4
Coordinates from ORCA-job PES_H3 Relaxed Surface Scan Step 8 E -114.411459732873
  C       0.009389     -0.000000      0.000000
  O       1.200298      0.000000     -0.000000
  H      -0.596437      0.946875     -0.000000
  H      -0.596437     -0.946875      0.000000
>
4
Coordinates from ORCA-job PES_H3 Relaxed Surface Scan Step 9 E -114.409918625245
  C       0.009484     -0.000000     -0.000000
  O       1.177665      0.000000      0.000000
  H      -0.603946      0.945964      0.000000
  H      -0.603946     -0.945964     -0.000000
>
4
Coordinates from ORCA-job PES_H3 Relaxed Surface Scan Step 10 E -114.406340076540
  C       0.009580      0.000000     -0.000000
  O       1.155035     -0.000000      0.000000
  H      -0.611647      0.945247      0.000000
  H      -0.611647     -0.945247      0.000000
>
4
Coordinates from ORCA-job PES_H3 Relaxed Surface Scan Step 11 E -114.400404059509
  C       0.009679      0.000000      0.000000
  O       1.132406     -0.000000     -0.000000
  H      -0.619542      0.944752     -0.000000
  H      -0.619542     -0.944752      0.000000
>
4
Coordinates from ORCA-job PES_H3 Relaxed Surface Scan Step 12 E -114.391745902349
  C       0.009780     -0.000000     -0.000000
  O       1.109780      0.000000      0.000000
  H      -0.627638      0.944507      0.000000
  H      -0.627638     -0.944507      0.000000
